variables = x, y, z, Ux
zone N=1000, E=0, F=FEPOINT, ET=POINT
-5.00000000	-5.00000000	-5.00000000	-5.77350269e-01
-5.00000000	-5.00000000	-3.88888889	-6.19585552e-01
-5.00000000	-5.00000000	-2.77777778	-6.58145182e-01
-5.00000000	-5.00000000	-1.66666667	-6.88247202e-01
-5.00000000	-5.00000000	-0.55555556	-7.04934405e-01
-5.00000000	-5.00000000	0.55555556	-7.04934405e-01
-5.00000000	-5.00000000	1.66666667	-6.88247202e-01
-5.00000000	-5.00000000	2.77777778	-6.58145182e-01
-5.00000000	-5.00000000	3.88888889	-6.19585552e-01
-5.00000000	-5.00000000	5.00000000	-5.77350269e-01
-5.00000000	-3.88888889	-5.00000000	-6.19585552e-01
-5.00000000	-3.88888889	-3.88888889	-6.72691583e-01
-5.00000000	-3.88888889	-2.77777778	-7.22897396e-01
-5.00000000	-3.88888889	-1.66666667	-7.63370037e-01
-5.00000000	-3.88888889	-0.55555556	-7.86333651e-01
-5.00000000	-3.88888889	0.55555556	-7.86333651e-01
-5.00000000	-3.88888889	1.66666667	-7.63370037e-01
-5.00000000	-3.88888889	2.77777778	-7.22897396e-01
-5.00000000	-3.88888889	3.88888889	-6.72691583e-01
-5.00000000	-3.88888889	5.00000000	-6.19585552e-01
-5.00000000	-2.77777778	-5.00000000	-6.58145182e-01
-5.00000000	-2.77777778	-3.88888889	-7.22897396e-01
-5.00000000	-2.77777778	-2.77777778	-7.86333651e-01
-5.00000000	-2.77777778	-1.66666667	-8.39254327e-01
-5.00000000	-2.77777778	-0.55555556	-8.70062840e-01
-5.00000000	-2.77777778	0.55555556	-8.70062840e-01
-5.00000000	-2.77777778	1.66666667	-8.39254327e-01
-5.00000000	-2.77777778	2.77777778	-7.86333651e-01
-5.00000000	-2.77777778	3.88888889	-7.22897396e-01
-5.00000000	-2.77777778	5.00000000	-6.58145182e-01
-5.00000000	-1.66666667	-5.00000000	-6.88247202e-01
-5.00000000	-1.66666667	-3.88888889	-7.63370037e-01
-5.00000000	-1.66666667	-2.77777778	-8.39254327e-01
-5.00000000	-1.66666667	-1.66666667	-9.04534034e-01
-5.00000000	-1.66666667	-0.55555556	-9.43456353e-01
-5.00000000	-1.66666667	0.55555556	-9.43456353e-01
-5.00000000	-1.66666667	1.66666667	-9.04534034e-01
-5.00000000	-1.66666667	2.77777778	-8.39254327e-01
-5.00000000	-1.66666667	3.88888889	-7.63370037e-01
-5.00000000	-1.66666667	5.00000000	-6.88247202e-01
-5.00000000	-0.55555556	-5.00000000	-7.04934405e-01
-5.00000000	-0.55555556	-3.88888889	-7.86333651e-01
-5.00000000	-0.55555556	-2.77777778	-8.70062840e-01
-5.00000000	-0.55555556	-1.66666667	-9.43456353e-01
-5.00000000	-0.55555556	-0.55555556	-9.87878340e-01
-5.00000000	-0.55555556	0.55555556	-9.87878340e-01
-5.00000000	-0.55555556	1.66666667	-9.43456353e-01
-5.00000000	-0.55555556	2.77777778	-8.70062840e-01
-5.00000000	-0.55555556	3.88888889	-7.86333651e-01
-5.00000000	-0.55555556	5.00000000	-7.04934405e-01
-5.00000000	0.55555556	-5.00000000	-7.04934405e-01
-5.00000000	0.55555556	-3.88888889	-7.86333651e-01
-5.00000000	0.55555556	-2.77777778	-8.70062840e-01
-5.00000000	0.55555556	-1.66666667	-9.43456353e-01
-5.00000000	0.55555556	-0.55555556	-9.87878340e-01
-5.00000000	0.55555556	0.55555556	-9.87878340e-01
-5.00000000	0.55555556	1.66666667	-9.43456353e-01
-5.00000000	0.55555556	2.77777778	-8.70062840e-01
-5.00000000	0.55555556	3.88888889	-7.86333651e-01
-5.00000000	0.55555556	5.00000000	-7.04934405e-01
-5.00000000	1.66666667	-5.00000000	-6.88247202e-01
-5.00000000	1.66666667	-3.88888889	-7.63370037e-01
-5.00000000	1.66666667	-2.77777778	-8.39254327e-01
-5.00000000	1.66666667	-1.66666667	-9.04534034e-01
-5.00000000	1.66666667	-0.55555556	-9.43456353e-01
-5.00000000	1.66666667	0.55555556	-9.43456353e-01
-5.00000000	1.66666667	1.66666667	-9.04534034e-01
-5.00000000	1.66666667	2.77777778	-8.39254327e-01
-5.00000000	1.66666667	3.88888889	-7.63370037e-01
-5.00000000	1.66666667	5.00000000	-6.88247202e-01
-5.00000000	2.77777778	-5.00000000	-6.58145182e-01
-5.00000000	2.77777778	-3.88888889	-7.22897396e-01
-5.00000000	2.77777778	-2.77777778	-7.86333651e-01
-5.00000000	2.77777778	-1.66666667	-8.39254327e-01
-5.00000000	2.77777778	-0.55555556	-8.70062840e-01
-5.00000000	2.77777778	0.55555556	-8.70062840e-01
-5.00000000	2.77777778	1.66666667	-8.39254327e-01
-5.00000000	2.77777778	2.77777778	-7.86333651e-01
-5.00000000	2.77777778	3.88888889	-7.22897396e-01
-5.00000000	2.77777778	5.00000000	-6.58145182e-01
-5.00000000	3.88888889	-5.00000000	-6.19585552e-01
-5.00000000	3.88888889	-3.88888889	-6.72691583e-01
-5.00000000	3.88888889	-2.77777778	-7.22897396e-01
-5.00000000	3.88888889	-1.66666667	-7.63370037e-01
-5.00000000	3.88888889	-0.55555556	-7.86333651e-01
-5.00000000	3.88888889	0.55555556	-7.86333651e-01
-5.00000000	3.88888889	1.66666667	-7.63370037e-01
-5.00000000	3.88888889	2.77777778	-7.22897396e-01
-5.00000000	3.88888889	3.88888889	-6.72691583e-01
-5.00000000	3.88888889	5.00000000	-6.19585552e-01
-5.00000000	5.00000000	-5.00000000	-5.77350269e-01
-5.00000000	5.00000000	-3.88888889	-6.19585552e-01
-5.00000000	5.00000000	-2.77777778	-6.58145182e-01
-5.00000000	5.00000000	-1.66666667	-6.88247202e-01
-5.00000000	5.00000000	-0.55555556	-7.04934405e-01
-5.00000000	5.00000000	0.55555556	-7.04934405e-01
-5.00000000	5.00000000	1.66666667	-6.88247202e-01
-5.00000000	5.00000000	2.77777778	-6.58145182e-01
-5.00000000	5.00000000	3.88888889	-6.19585552e-01
-5.00000000	5.00000000	5.00000000	-5.77350269e-01
-3.88888889	-5.00000000	-5.00000000	-4.81899874e-01
-3.88888889	-5.00000000	-3.88888889	-5.23204565e-01
-3.88888889	-5.00000000	-2.77777778	-5.62253530e-01
-3.88888889	-5.00000000	-1.66666667	-5.93732251e-01
-3.88888889	-5.00000000	-0.55555556	-6.11592840e-01
-3.88888889	-5.00000000	0.55555556	-6.11592840e-01
-3.88888889	-5.00000000	1.66666667	-5.93732251e-01
-3.88888889	-5.00000000	2.77777778	-5.62253530e-01
-3.88888889	-5.00000000	3.88888889	-5.23204565e-01
-3.88888889	-5.00000000	5.00000000	-4.81899874e-01
-3.88888889	-3.88888889	-5.00000000	-5.23204565e-01
-3.88888889	-3.88888889	-3.88888889	-5.77350269e-01
-3.88888889	-3.88888889	-2.77777778	-6.31168744e-01
-3.88888889	-3.88888889	-1.66666667	-6.76715542e-01
-3.88888889	-3.88888889	-0.55555556	-7.03526471e-01
-3.88888889	-3.88888889	0.55555556	-7.03526471e-01
-3.88888889	-3.88888889	1.66666667	-6.76715542e-01
-3.88888889	-3.88888889	2.77777778	-6.31168744e-01
-3.88888889	-3.88888889	3.88888889	-5.77350269e-01
-3.88888889	-3.88888889	5.00000000	-5.23204565e-01
-3.88888889	-2.77777778	-5.00000000	-5.62253530e-01
-3.88888889	-2.77777778	-3.88888889	-6.31168744e-01
-3.88888889	-2.77777778	-2.77777778	-7.03526471e-01
-3.88888889	-2.77777778	-1.66666667	-7.68349820e-01
-3.88888889	-2.77777778	-0.55555556	-8.08290377e-01
-3.88888889	-2.77777778	0.55555556	-8.08290377e-01
-3.88888889	-2.77777778	1.66666667	-7.68349820e-01
-3.88888889	-2.77777778	2.77777778	-7.03526471e-01
-3.88888889	-2.77777778	3.88888889	-6.31168744e-01
-3.88888889	-2.77777778	5.00000000	-5.62253530e-01
-3.88888889	-1.66666667	-5.00000000	-5.93732251e-01
-3.88888889	-1.66666667	-3.88888889	-6.76715542e-01
-3.88888889	-1.66666667	-2.77777778	-7.68349820e-01
-3.88888889	-1.66666667	-1.66666667	-8.55186110e-01
-3.88888889	-1.66666667	-0.55555556	-9.11322377e-01
-3.88888889	-1.66666667	0.55555556	-9.11322377e-01
-3.88888889	-1.66666667	1.66666667	-8.55186110e-01
-3.88888889	-1.66666667	2.77777778	-7.68349820e-01
-3.88888889	-1.66666667	3.88888889	-6.76715542e-01
-3.88888889	-1.66666667	5.00000000	-5.93732251e-01
-3.88888889	-0.55555556	-5.00000000	-6.11592840e-01
-3.88888889	-0.55555556	-3.88888889	-7.03526471e-01
-3.88888889	-0.55555556	-2.77777778	-8.08290377e-01
-3.88888889	-0.55555556	-1.66666667	-9.11322377e-01
-3.88888889	-0.55555556	-0.55555556	-9.80196059e-01
-3.88888889	-0.55555556	0.55555556	-9.80196059e-01
-3.88888889	-0.55555556	1.66666667	-9.11322377e-01
-3.88888889	-0.55555556	2.77777778	-8.08290377e-01
-3.88888889	-0.55555556	3.88888889	-7.03526471e-01
-3.88888889	-0.55555556	5.00000000	-6.11592840e-01
-3.88888889	0.55555556	-5.00000000	-6.11592840e-01
-3.88888889	0.55555556	-3.88888889	-7.03526471e-01
-3.88888889	0.55555556	-2.77777778	-8.08290377e-01
-3.88888889	0.55555556	-1.66666667	-9.11322377e-01
-3.88888889	0.55555556	-0.55555556	-9.80196059e-01
-3.88888889	0.55555556	0.55555556	-9.80196059e-01
-3.88888889	0.55555556	1.66666667	-9.11322377e-01
-3.88888889	0.55555556	2.77777778	-8.08290377e-01
-3.88888889	0.55555556	3.88888889	-7.03526471e-01
-3.88888889	0.55555556	5.00000000	-6.11592840e-01
-3.88888889	1.66666667	-5.00000000	-5.93732251e-01
-3.88888889	1.66666667	-3.88888889	-6.76715542e-01
-3.88888889	1.66666667	-2.77777778	-7.68349820e-01
-3.88888889	1.66666667	-1.66666667	-8.55186110e-01
-3.88888889	1.66666667	-0.55555556	-9.11322377e-01
-3.88888889	1.66666667	0.55555556	-9.11322377e-01
-3.88888889	1.66666667	1.66666667	-8.55186110e-01
-3.88888889	1.66666667	2.77777778	-7.68349820e-01
-3.88888889	1.66666667	3.88888889	-6.76715542e-01
-3.88888889	1.66666667	5.00000000	-5.93732251e-01
-3.88888889	2.77777778	-5.00000000	-5.62253530e-01
-3.88888889	2.77777778	-3.88888889	-6.31168744e-01
-3.88888889	2.77777778	-2.77777778	-7.03526471e-01
-3.88888889	2.77777778	-1.66666667	-7.68349820e-01
-3.88888889	2.77777778	-0.55555556	-8.08290377e-01
-3.88888889	2.77777778	0.55555556	-8.08290377e-01
-3.88888889	2.77777778	1.66666667	-7.68349820e-01
-3.88888889	2.77777778	2.77777778	-7.03526471e-01
-3.88888889	2.77777778	3.88888889	-6.31168744e-01
-3.88888889	2.77777778	5.00000000	-5.62253530e-01
-3.88888889	3.88888889	-5.00000000	-5.23204565e-01
-3.88888889	3.88888889	-3.88888889	-5.77350269e-01
-3.88888889	3.88888889	-2.77777778	-6.31168744e-01
-3.88888889	3.88888889	-1.66666667	-6.76715542e-01
-3.88888889	3.88888889	-0.55555556	-7.03526471e-01
-3.88888889	3.88888889	0.55555556	-7.03526471e-01
-3.88888889	3.88888889	1.66666667	-6.76715542e-01
-3.88888889	3.88888889	2.77777778	-6.31168744e-01
-3.88888889	3.88888889	3.88888889	-5.77350269e-01
-3.88888889	3.88888889	5.00000000	-5.23204565e-01
-3.88888889	5.00000000	-5.00000000	-4.81899874e-01
-3.88888889	5.00000000	-3.88888889	-5.23204565e-01
-3.88888889	5.00000000	-2.77777778	-5.62253530e-01
-3.88888889	5.00000000	-1.66666667	-5.93732251e-01
-3.88888889	5.00000000	-0.55555556	-6.11592840e-01
-3.88888889	5.00000000	0.55555556	-6.11592840e-01
-3.88888889	5.00000000	1.66666667	-5.93732251e-01
-3.88888889	5.00000000	2.77777778	-5.62253530e-01
-3.88888889	5.00000000	3.88888889	-5.23204565e-01
-3.88888889	5.00000000	5.00000000	-4.81899874e-01
-2.77777778	-5.00000000	-5.00000000	-3.65636212e-01
-2.77777778	-5.00000000	-3.88888889	-4.01609664e-01
-2.77777778	-5.00000000	-2.77777778	-4.36852028e-01
-2.77777778	-5.00000000	-1.66666667	-4.66252404e-01
-2.77777778	-5.00000000	-0.55555556	-4.83368244e-01
-2.77777778	-5.00000000	0.55555556	-4.83368244e-01
-2.77777778	-5.00000000	1.66666667	-4.66252404e-01
-2.77777778	-5.00000000	2.77777778	-4.36852028e-01
-2.77777778	-5.00000000	3.88888889	-4.01609664e-01
-2.77777778	-5.00000000	5.00000000	-3.65636212e-01
-2.77777778	-3.88888889	-5.00000000	-4.01609664e-01
-2.77777778	-3.88888889	-3.88888889	-4.50834817e-01
-2.77777778	-3.88888889	-2.77777778	-5.02518908e-01
-2.77777778	-3.88888889	-1.66666667	-5.48821300e-01
-2.77777778	-3.88888889	-0.55555556	-5.77350269e-01
-2.77777778	-3.88888889	0.55555556	-5.77350269e-01
-2.77777778	-3.88888889	1.66666667	-5.48821300e-01
-2.77777778	-3.88888889	2.77777778	-5.02518908e-01
-2.77777778	-3.88888889	3.88888889	-4.50834817e-01
-2.77777778	-3.88888889	5.00000000	-4.01609664e-01
-2.77777778	-2.77777778	-5.00000000	-4.36852028e-01
-2.77777778	-2.77777778	-3.88888889	-5.02518908e-01
-2.77777778	-2.77777778	-2.77777778	-5.77350269e-01
-2.77777778	-2.77777778	-1.66666667	-6.50944555e-01
-2.77777778	-2.77777778	-0.55555556	-7.00140042e-01
-2.77777778	-2.77777778	0.55555556	-7.00140042e-01
-2.77777778	-2.77777778	1.66666667	-6.50944555e-01
-2.77777778	-2.77777778	2.77777778	-5.77350269e-01
-2.77777778	-2.77777778	3.88888889	-5.02518908e-01
-2.77777778	-2.77777778	5.00000000	-4.36852028e-01
-2.77777778	-1.66666667	-5.00000000	-4.66252404e-01
-2.77777778	-1.66666667	-3.88888889	-5.48821300e-01
-2.77777778	-1.66666667	-2.77777778	-6.50944555e-01
-2.77777778	-1.66666667	-1.66666667	-7.62492851e-01
-2.77777778	-1.66666667	-0.55555556	-8.45154254e-01
-2.77777778	-1.66666667	0.55555556	-8.45154254e-01
-2.77777778	-1.66666667	1.66666667	-7.62492851e-01
-2.77777778	-1.66666667	2.77777778	-6.50944555e-01
-2.77777778	-1.66666667	3.88888889	-5.48821300e-01
-2.77777778	-1.66666667	5.00000000	-4.66252404e-01
-2.77777778	-0.55555556	-5.00000000	-4.83368244e-01
-2.77777778	-0.55555556	-3.88888889	-5.77350269e-01
-2.77777778	-0.55555556	-2.77777778	-7.00140042e-01
-2.77777778	-0.55555556	-1.66666667	-8.45154254e-01
-2.77777778	-0.55555556	-0.55555556	-9.62250448e-01
-2.77777778	-0.55555556	0.55555556	-9.62250448e-01
-2.77777778	-0.55555556	1.66666667	-8.45154254e-01
-2.77777778	-0.55555556	2.77777778	-7.00140042e-01
-2.77777778	-0.55555556	3.88888889	-5.77350269e-01
-2.77777778	-0.55555556	5.00000000	-4.83368244e-01
-2.77777778	0.55555556	-5.00000000	-4.83368244e-01
-2.77777778	0.55555556	-3.88888889	-5.77350269e-01
-2.77777778	0.55555556	-2.77777778	-7.00140042e-01
-2.77777778	0.55555556	-1.66666667	-8.45154254e-01
-2.77777778	0.55555556	-0.55555556	-9.62250448e-01
-2.77777778	0.55555556	0.55555556	-9.62250448e-01
-2.77777778	0.55555556	1.66666667	-8.45154254e-01
-2.77777778	0.55555556	2.77777778	-7.00140042e-01
-2.77777778	0.55555556	3.88888889	-5.77350269e-01
-2.77777778	0.55555556	5.00000000	-4.83368244e-01
-2.77777778	1.66666667	-5.00000000	-4.66252404e-01
-2.77777778	1.66666667	-3.88888889	-5.48821300e-01
-2.77777778	1.66666667	-2.77777778	-6.50944555e-01
-2.77777778	1.66666667	-1.66666667	-7.62492851e-01
-2.77777778	1.66666667	-0.55555556	-8.45154254e-01
-2.77777778	1.66666667	0.55555556	-8.45154254e-01
-2.77777778	1.66666667	1.66666667	-7.62492851e-01
-2.77777778	1.66666667	2.77777778	-6.50944555e-01
-2.77777778	1.66666667	3.88888889	-5.48821300e-01
-2.77777778	1.66666667	5.00000000	-4.66252404e-01
-2.77777778	2.77777778	-5.00000000	-4.36852028e-01
-2.77777778	2.77777778	-3.88888889	-5.02518908e-01
-2.77777778	2.77777778	-2.77777778	-5.77350269e-01
-2.77777778	2.77777778	-1.66666667	-6.50944555e-01
-2.77777778	2.77777778	-0.55555556	-7.00140042e-01
-2.77777778	2.77777778	0.55555556	-7.00140042e-01
-2.77777778	2.77777778	1.66666667	-6.50944555e-01
-2.77777778	2.77777778	2.77777778	-5.77350269e-01
-2.77777778	2.77777778	3.88888889	-5.02518908e-01
-2.77777778	2.77777778	5.00000000	-4.36852028e-01
-2.77777778	3.88888889	-5.00000000	-4.01609664e-01
-2.77777778	3.88888889	-3.88888889	-4.50834817e-01
-2.77777778	3.88888889	-2.77777778	-5.02518908e-01
-2.77777778	3.88888889	-1.66666667	-5.48821300e-01
-2.77777778	3.88888889	-0.55555556	-5.77350269e-01
-2.77777778	3.88888889	0.55555556	-5.77350269e-01
-2.77777778	3.88888889	1.66666667	-5.48821300e-01
-2.77777778	3.88888889	2.77777778	-5.02518908e-01
-2.77777778	3.88888889	3.88888889	-4.50834817e-01
-2.77777778	3.88888889	5.00000000	-4.01609664e-01
-2.77777778	5.00000000	-5.00000000	-3.65636212e-01
-2.77777778	5.00000000	-3.88888889	-4.01609664e-01
-2.77777778	5.00000000	-2.77777778	-4.36852028e-01
-2.77777778	5.00000000	-1.66666667	-4.66252404e-01
-2.77777778	5.00000000	-0.55555556	-4.83368244e-01
-2.77777778	5.00000000	0.55555556	-4.83368244e-01
-2.77777778	5.00000000	1.66666667	-4.66252404e-01
-2.77777778	5.00000000	2.77777778	-4.36852028e-01
-2.77777778	5.00000000	3.88888889	-4.01609664e-01
-2.77777778	5.00000000	5.00000000	-3.65636212e-01
-1.66666667	-5.00000000	-5.00000000	-2.29415734e-01
-1.66666667	-5.00000000	-3.88888889	-2.54456679e-01
-1.66666667	-5.00000000	-2.77777778	-2.79751442e-01
-1.66666667	-5.00000000	-1.66666667	-3.01511345e-01
-1.66666667	-5.00000000	-0.55555556	-3.14485451e-01
-1.66666667	-5.00000000	0.55555556	-3.14485451e-01
-1.66666667	-5.00000000	1.66666667	-3.01511345e-01
-1.66666667	-5.00000000	2.77777778	-2.79751442e-01
-1.66666667	-5.00000000	3.88888889	-2.54456679e-01
-1.66666667	-5.00000000	5.00000000	-2.29415734e-01
-1.66666667	-3.88888889	-5.00000000	-2.54456679e-01
-1.66666667	-3.88888889	-3.88888889	-2.90020947e-01
-1.66666667	-3.88888889	-2.77777778	-3.29292780e-01
-1.66666667	-3.88888889	-1.66666667	-3.66508333e-01
-1.66666667	-3.88888889	-0.55555556	-3.90566733e-01
-1.66666667	-3.88888889	0.55555556	-3.90566733e-01
-1.66666667	-3.88888889	1.66666667	-3.66508333e-01
-1.66666667	-3.88888889	2.77777778	-3.29292780e-01
-1.66666667	-3.88888889	3.88888889	-2.90020947e-01
-1.66666667	-3.88888889	5.00000000	-2.54456679e-01
-1.66666667	-2.77777778	-5.00000000	-2.79751442e-01
-1.66666667	-2.77777778	-3.88888889	-3.29292780e-01
-1.66666667	-2.77777778	-2.77777778	-3.90566733e-01
-1.66666667	-2.77777778	-1.66666667	-4.57495711e-01
-1.66666667	-2.77777778	-0.55555556	-5.07092553e-01
-1.66666667	-2.77777778	0.55555556	-5.07092553e-01
-1.66666667	-2.77777778	1.66666667	-4.57495711e-01
-1.66666667	-2.77777778	2.77777778	-3.90566733e-01
-1.66666667	-2.77777778	3.88888889	-3.29292780e-01
-1.66666667	-2.77777778	5.00000000	-2.79751442e-01
-1.66666667	-1.66666667	-5.00000000	-3.01511345e-01
-1.66666667	-1.66666667	-3.88888889	-3.66508333e-01
-1.66666667	-1.66666667	-2.77777778	-4.57495711e-01
-1.66666667	-1.66666667	-1.66666667	-5.77350269e-01
-1.66666667	-1.66666667	-0.55555556	-6.88247201e-01
-1.66666667	-1.66666667	0.55555556	-6.88247201e-01
-1.66666667	-1.66666667	1.66666667	-5.77350269e-01
-1.66666667	-1.66666667	2.77777778	-4.57495711e-01
-1.66666667	-1.66666667	3.88888889	-3.66508333e-01
-1.66666667	-1.66666667	5.00000000	-3.01511345e-01
-1.66666667	-0.55555556	-5.00000000	-3.14485451e-01
-1.66666667	-0.55555556	-3.88888889	-3.90566733e-01
-1.66666667	-0.55555556	-2.77777778	-5.07092553e-01
-1.66666667	-0.55555556	-1.66666667	-6.88247201e-01
-1.66666667	-0.55555556	-0.55555556	-9.04534033e-01
-1.66666667	-0.55555556	0.55555556	-9.04534033e-01
-1.66666667	-0.55555556	1.66666667	-6.88247201e-01
-1.66666667	-0.55555556	2.77777778	-5.07092553e-01
-1.66666667	-0.55555556	3.88888889	-3.90566733e-01
-1.66666667	-0.55555556	5.00000000	-3.14485451e-01
-1.66666667	0.55555556	-5.00000000	-3.14485451e-01
-1.66666667	0.55555556	-3.88888889	-3.90566733e-01
-1.66666667	0.55555556	-2.77777778	-5.07092553e-01
-1.66666667	0.55555556	-1.66666667	-6.88247201e-01
-1.66666667	0.55555556	-0.55555556	-9.04534033e-01
-1.66666667	0.55555556	0.55555556	-9.04534033e-01
-1.66666667	0.55555556	1.66666667	-6.88247201e-01
-1.66666667	0.55555556	2.77777778	-5.07092553e-01
-1.66666667	0.55555556	3.88888889	-3.90566733e-01
-1.66666667	0.55555556	5.00000000	-3.14485451e-01
-1.66666667	1.66666667	-5.00000000	-3.01511345e-01
-1.66666667	1.66666667	-3.88888889	-3.66508333e-01
-1.66666667	1.66666667	-2.77777778	-4.57495711e-01
-1.66666667	1.66666667	-1.66666667	-5.77350269e-01
-1.66666667	1.66666667	-0.55555556	-6.88247201e-01
-1.66666667	1.66666667	0.55555556	-6.88247201e-01
-1.66666667	1.66666667	1.66666667	-5.77350269e-01
-1.66666667	1.66666667	2.77777778	-4.57495711e-01
-1.66666667	1.66666667	3.88888889	-3.66508333e-01
-1.66666667	1.66666667	5.00000000	-3.01511345e-01
-1.66666667	2.77777778	-5.00000000	-2.79751442e-01
-1.66666667	2.77777778	-3.88888889	-3.29292780e-01
-1.66666667	2.77777778	-2.77777778	-3.90566733e-01
-1.66666667	2.77777778	-1.66666667	-4.57495711e-01
-1.66666667	2.77777778	-0.55555556	-5.07092553e-01
-1.66666667	2.77777778	0.55555556	-5.07092553e-01
-1.66666667	2.77777778	1.66666667	-4.57495711e-01
-1.66666667	2.77777778	2.77777778	-3.90566733e-01
-1.66666667	2.77777778	3.88888889	-3.29292780e-01
-1.66666667	2.77777778	5.00000000	-2.79751442e-01
-1.66666667	3.88888889	-5.00000000	-2.54456679e-01
-1.66666667	3.88888889	-3.88888889	-2.90020947e-01
-1.66666667	3.88888889	-2.77777778	-3.29292780e-01
-1.66666667	3.88888889	-1.66666667	-3.66508333e-01
-1.66666667	3.88888889	-0.55555556	-3.90566733e-01
-1.66666667	3.88888889	0.55555556	-3.90566733e-01
-1.66666667	3.88888889	1.66666667	-3.66508333e-01
-1.66666667	3.88888889	2.77777778	-3.29292780e-01
-1.66666667	3.88888889	3.88888889	-2.90020947e-01
-1.66666667	3.88888889	5.00000000	-2.54456679e-01
-1.66666667	5.00000000	-5.00000000	-2.29415734e-01
-1.66666667	5.00000000	-3.88888889	-2.54456679e-01
-1.66666667	5.00000000	-2.77777778	-2.79751442e-01
-1.66666667	5.00000000	-1.66666667	-3.01511345e-01
-1.66666667	5.00000000	-0.55555556	-3.14485451e-01
-1.66666667	5.00000000	0.55555556	-3.14485451e-01
-1.66666667	5.00000000	1.66666667	-3.01511345e-01
-1.66666667	5.00000000	2.77777778	-2.79751442e-01
-1.66666667	5.00000000	3.88888889	-2.54456679e-01
-1.66666667	5.00000000	5.00000000	-2.29415734e-01
-0.55555556	-5.00000000	-5.00000000	-7.83260450e-02
-0.55555556	-5.00000000	-3.88888889	-8.73704057e-02
-0.55555556	-5.00000000	-2.77777778	-9.66736489e-02
-0.55555556	-5.00000000	-1.66666667	-1.04828484e-01
-0.55555556	-5.00000000	-0.55555556	-1.09764260e-01
-0.55555556	-5.00000000	0.55555556	-1.09764260e-01
-0.55555556	-5.00000000	1.66666667	-1.04828484e-01
-0.55555556	-5.00000000	2.77777778	-9.66736489e-02
-0.55555556	-5.00000000	3.88888889	-8.73704057e-02
-0.55555556	-5.00000000	5.00000000	-7.83260450e-02
-0.55555556	-3.88888889	-5.00000000	-8.73704057e-02
-0.55555556	-3.88888889	-3.88888889	-1.00503782e-01
-0.55555556	-3.88888889	-2.77777778	-1.15470054e-01
-0.55555556	-3.88888889	-1.66666667	-1.30188911e-01
-0.55555556	-3.88888889	-0.55555556	-1.40028008e-01
-0.55555556	-3.88888889	0.55555556	-1.40028008e-01
-0.55555556	-3.88888889	1.66666667	-1.30188911e-01
-0.55555556	-3.88888889	2.77777778	-1.15470054e-01
-0.55555556	-3.88888889	3.88888889	-1.00503782e-01
-0.55555556	-3.88888889	5.00000000	-8.73704057e-02
-0.55555556	-2.77777778	-5.00000000	-9.66736489e-02
-0.55555556	-2.77777778	-3.88888889	-1.15470054e-01
-0.55555556	-2.77777778	-2.77777778	-1.40028008e-01
-0.55555556	-2.77777778	-1.66666667	-1.69030851e-01
-0.55555556	-2.77777778	-0.55555556	-1.92450090e-01
-0.55555556	-2.77777778	0.55555556	-1.92450090e-01
-0.55555556	-2.77777778	1.66666667	-1.69030851e-01
-0.55555556	-2.77777778	2.77777778	-1.40028008e-01
-0.55555556	-2.77777778	3.88888889	-1.15470054e-01
-0.55555556	-2.77777778	5.00000000	-9.66736489e-02
-0.55555556	-1.66666667	-5.00000000	-1.04828484e-01
-0.55555556	-1.66666667	-3.88888889	-1.30188911e-01
-0.55555556	-1.66666667	-2.77777778	-1.69030851e-01
-0.55555556	-1.66666667	-1.66666667	-2.29415734e-01
-0.55555556	-1.66666667	-0.55555556	-3.01511344e-01
-0.55555556	-1.66666667	0.55555556	-3.01511344e-01
-0.55555556	-1.66666667	1.66666667	-2.29415734e-01
-0.55555556	-1.66666667	2.77777778	-1.69030851e-01
-0.55555556	-1.66666667	3.88888889	-1.30188911e-01
-0.55555556	-1.66666667	5.00000000	-1.04828484e-01
-0.55555556	-0.55555556	-5.00000000	-1.09764260e-01
-0.55555556	-0.55555556	-3.88888889	-1.40028008e-01
-0.55555556	-0.55555556	-2.77777778	-1.92450090e-01
-0.55555556	-0.55555556	-1.66666667	-3.01511344e-01
-0.55555556	-0.55555556	-0.55555556	-5.77350269e-01
-0.55555556	-0.55555556	0.55555556	-5.77350269e-01
-0.55555556	-0.55555556	1.66666667	-3.01511344e-01
-0.55555556	-0.55555556	2.77777778	-1.92450090e-01
-0.55555556	-0.55555556	3.88888889	-1.40028008e-01
-0.55555556	-0.55555556	5.00000000	-1.09764260e-01
-0.55555556	0.55555556	-5.00000000	-1.09764260e-01
-0.55555556	0.55555556	-3.88888889	-1.40028008e-01
-0.55555556	0.55555556	-2.77777778	-1.92450090e-01
-0.55555556	0.55555556	-1.66666667	-3.01511344e-01
-0.55555556	0.55555556	-0.55555556	-5.77350269e-01
-0.55555556	0.55555556	0.55555556	-5.77350269e-01
-0.55555556	0.55555556	1.66666667	-3.01511344e-01
-0.55555556	0.55555556	2.77777778	-1.92450090e-01
-0.55555556	0.55555556	3.88888889	-1.40028008e-01
-0.55555556	0.55555556	5.00000000	-1.09764260e-01
-0.55555556	1.66666667	-5.00000000	-1.04828484e-01
-0.55555556	1.66666667	-3.88888889	-1.30188911e-01
-0.55555556	1.66666667	-2.77777778	-1.69030851e-01
-0.55555556	1.66666667	-1.66666667	-2.29415734e-01
-0.55555556	1.66666667	-0.55555556	-3.01511344e-01
-0.55555556	1.66666667	0.55555556	-3.01511344e-01
-0.55555556	1.66666667	1.66666667	-2.29415734e-01
-0.55555556	1.66666667	2.77777778	-1.69030851e-01
-0.55555556	1.66666667	3.88888889	-1.30188911e-01
-0.55555556	1.66666667	5.00000000	-1.04828484e-01
-0.55555556	2.77777778	-5.00000000	-9.66736489e-02
-0.55555556	2.77777778	-3.88888889	-1.15470054e-01
-0.55555556	2.77777778	-2.77777778	-1.40028008e-01
-0.55555556	2.77777778	-1.66666667	-1.69030851e-01
-0.55555556	2.77777778	-0.55555556	-1.92450090e-01
-0.55555556	2.77777778	0.55555556	-1.92450090e-01
-0.55555556	2.77777778	1.66666667	-1.69030851e-01
-0.55555556	2.77777778	2.77777778	-1.40028008e-01
-0.55555556	2.77777778	3.88888889	-1.15470054e-01
-0.55555556	2.77777778	5.00000000	-9.66736489e-02
-0.55555556	3.88888889	-5.00000000	-8.73704057e-02
-0.55555556	3.88888889	-3.88888889	-1.00503782e-01
-0.55555556	3.88888889	-2.77777778	-1.15470054e-01
-0.55555556	3.88888889	-1.66666667	-1.30188911e-01
-0.55555556	3.88888889	-0.55555556	-1.40028008e-01
-0.55555556	3.88888889	0.55555556	-1.40028008e-01
-0.55555556	3.88888889	1.66666667	-1.30188911e-01
-0.55555556	3.88888889	2.77777778	-1.15470054e-01
-0.55555556	3.88888889	3.88888889	-1.00503782e-01
-0.55555556	3.88888889	5.00000000	-8.73704057e-02
-0.55555556	5.00000000	-5.00000000	-7.83260450e-02
-0.55555556	5.00000000	-3.88888889	-8.73704057e-02
-0.55555556	5.00000000	-2.77777778	-9.66736489e-02
-0.55555556	5.00000000	-1.66666667	-1.04828484e-01
-0.55555556	5.00000000	-0.55555556	-1.09764260e-01
-0.55555556	5.00000000	0.55555556	-1.09764260e-01
-0.55555556	5.00000000	1.66666667	-1.04828484e-01
-0.55555556	5.00000000	2.77777778	-9.66736489e-02
-0.55555556	5.00000000	3.88888889	-8.73704057e-02
-0.55555556	5.00000000	5.00000000	-7.83260450e-02
0.55555556	-5.00000000	-5.00000000	7.83260450e-02
0.55555556	-5.00000000	-3.88888889	8.73704057e-02
0.55555556	-5.00000000	-2.77777778	9.66736489e-02
0.55555556	-5.00000000	-1.66666667	1.04828484e-01
0.55555556	-5.00000000	-0.55555556	1.09764260e-01
0.55555556	-5.00000000	0.55555556	1.09764260e-01
0.55555556	-5.00000000	1.66666667	1.04828484e-01
0.55555556	-5.00000000	2.77777778	9.66736489e-02
0.55555556	-5.00000000	3.88888889	8.73704057e-02
0.55555556	-5.00000000	5.00000000	7.83260450e-02
0.55555556	-3.88888889	-5.00000000	8.73704057e-02
0.55555556	-3.88888889	-3.88888889	1.00503782e-01
0.55555556	-3.88888889	-2.77777778	1.15470054e-01
0.55555556	-3.88888889	-1.66666667	1.30188911e-01
0.55555556	-3.88888889	-0.55555556	1.40028008e-01
0.55555556	-3.88888889	0.55555556	1.40028008e-01
0.55555556	-3.88888889	1.66666667	1.30188911e-01
0.55555556	-3.88888889	2.77777778	1.15470054e-01
0.55555556	-3.88888889	3.88888889	1.00503782e-01
0.55555556	-3.88888889	5.00000000	8.73704057e-02
0.55555556	-2.77777778	-5.00000000	9.66736489e-02
0.55555556	-2.77777778	-3.88888889	1.15470054e-01
0.55555556	-2.77777778	-2.77777778	1.40028008e-01
0.55555556	-2.77777778	-1.66666667	1.69030851e-01
0.55555556	-2.77777778	-0.55555556	1.92450090e-01
0.55555556	-2.77777778	0.55555556	1.92450090e-01
0.55555556	-2.77777778	1.66666667	1.69030851e-01
0.55555556	-2.77777778	2.77777778	1.40028008e-01
0.55555556	-2.77777778	3.88888889	1.15470054e-01
0.55555556	-2.77777778	5.00000000	9.66736489e-02
0.55555556	-1.66666667	-5.00000000	1.04828484e-01
0.55555556	-1.66666667	-3.88888889	1.30188911e-01
0.55555556	-1.66666667	-2.77777778	1.69030851e-01
0.55555556	-1.66666667	-1.66666667	2.29415734e-01
0.55555556	-1.66666667	-0.55555556	3.01511344e-01
0.55555556	-1.66666667	0.55555556	3.01511344e-01
0.55555556	-1.66666667	1.66666667	2.29415734e-01
0.55555556	-1.66666667	2.77777778	1.69030851e-01
0.55555556	-1.66666667	3.88888889	1.30188911e-01
0.55555556	-1.66666667	5.00000000	1.04828484e-01
0.55555556	-0.55555556	-5.00000000	1.09764260e-01
0.55555556	-0.55555556	-3.88888889	1.40028008e-01
0.55555556	-0.55555556	-2.77777778	1.92450090e-01
0.55555556	-0.55555556	-1.66666667	3.01511344e-01
0.55555556	-0.55555556	-0.55555556	5.77350269e-01
0.55555556	-0.55555556	0.55555556	5.77350269e-01
0.55555556	-0.55555556	1.66666667	3.01511344e-01
0.55555556	-0.55555556	2.77777778	1.92450090e-01
0.55555556	-0.55555556	3.88888889	1.40028008e-01
0.55555556	-0.55555556	5.00000000	1.09764260e-01
0.55555556	0.55555556	-5.00000000	1.09764260e-01
0.55555556	0.55555556	-3.88888889	1.40028008e-01
0.55555556	0.55555556	-2.77777778	1.92450090e-01
0.55555556	0.55555556	-1.66666667	3.01511344e-01
0.55555556	0.55555556	-0.55555556	5.77350269e-01
0.55555556	0.55555556	0.55555556	5.77350269e-01
0.55555556	0.55555556	1.66666667	3.01511344e-01
0.55555556	0.55555556	2.77777778	1.92450090e-01
0.55555556	0.55555556	3.88888889	1.40028008e-01
0.55555556	0.55555556	5.00000000	1.09764260e-01
0.55555556	1.66666667	-5.00000000	1.04828484e-01
0.55555556	1.66666667	-3.88888889	1.30188911e-01
0.55555556	1.66666667	-2.77777778	1.69030851e-01
0.55555556	1.66666667	-1.66666667	2.29415734e-01
0.55555556	1.66666667	-0.55555556	3.01511344e-01
0.55555556	1.66666667	0.55555556	3.01511344e-01
0.55555556	1.66666667	1.66666667	2.29415734e-01
0.55555556	1.66666667	2.77777778	1.69030851e-01
0.55555556	1.66666667	3.88888889	1.30188911e-01
0.55555556	1.66666667	5.00000000	1.04828484e-01
0.55555556	2.77777778	-5.00000000	9.66736489e-02
0.55555556	2.77777778	-3.88888889	1.15470054e-01
0.55555556	2.77777778	-2.77777778	1.40028008e-01
0.55555556	2.77777778	-1.66666667	1.69030851e-01
0.55555556	2.77777778	-0.55555556	1.92450090e-01
0.55555556	2.77777778	0.55555556	1.92450090e-01
0.55555556	2.77777778	1.66666667	1.69030851e-01
0.55555556	2.77777778	2.77777778	1.40028008e-01
0.55555556	2.77777778	3.88888889	1.15470054e-01
0.55555556	2.77777778	5.00000000	9.66736489e-02
0.55555556	3.88888889	-5.00000000	8.73704057e-02
0.55555556	3.88888889	-3.88888889	1.00503782e-01
0.55555556	3.88888889	-2.77777778	1.15470054e-01
0.55555556	3.88888889	-1.66666667	1.30188911e-01
0.55555556	3.88888889	-0.55555556	1.40028008e-01
0.55555556	3.88888889	0.55555556	1.40028008e-01
0.55555556	3.88888889	1.66666667	1.30188911e-01
0.55555556	3.88888889	2.77777778	1.15470054e-01
0.55555556	3.88888889	3.88888889	1.00503782e-01
0.55555556	3.88888889	5.00000000	8.73704057e-02